
#(C) 2017 by FIZ Karlsruhe - Leibniz Institute for Information Infrastructure.  All rights reserved.
data_1544-ICSD
_database_code_ICSD 1544
_audit_creation_date 1980-01-01
_audit_update_record 2011-02-01
_chemical_name_systematic 'Iron(III) hydroxide oxide - gamma, LT'
_chemical_formula_structural 'Fe O (O H)'
_chemical_formula_sum 'H1 Fe1 O2'
_chemical_name_structure_type FeOOH
_exptl_crystal_density_diffrn 3.96
_cell_measurement_temperature 7.5
_publ_section_title 'Hydrogen bonds of gamma - Fe O O H'
loop_
_citation_id
_citation_journal_full
_citation_year
_citation_journal_volume
_citation_page_first
_citation_page_last
_citation_journal_id_ASTM
primary 'Acta Chemica Scandinavica, Series A: (28,1974-)' 1978 32 87 88 ACAPCT
loop_
_publ_author_name
'Christensen, H.'
'Christensen, A.N.'
_cell_length_a 3.08(1)
_cell_length_b 12.50(1)
_cell_length_c 3.87(1)
_cell_angle_alpha 90.
_cell_angle_beta 90.
_cell_angle_gamma 90.
_cell_volume 149.
_cell_formula_units_Z 4
_symmetry_space_group_name_H-M 'C m c 21'
_symmetry_Int_Tables_number 36
_refine_ls_R_factor_all 0.0851
loop_
_symmetry_equiv_pos_site_id
_symmetry_equiv_pos_as_xyz
1 'x, -y, z+1/2'
2 '-x, -y, z+1/2'
3 '-x, y, z'
4 'x, y, z'
5 'x+1/2, -y+1/2, z+1/2'
6 '-x+1/2, -y+1/2, z+1/2'
7 '-x+1/2, y+1/2, z'
8 'x+1/2, y+1/2, z'
loop_
_atom_type_symbol
_atom_type_oxidation_number
Fe3+ 3
O2- -2
H1+ 1
loop_
_atom_site_label
_atom_site_type_symbol
_atom_site_symmetry_multiplicity
_atom_site_Wyckoff_symbol
_atom_site_fract_x
_atom_site_fract_y
_atom_site_fract_z
_atom_site_B_iso_or_equiv
_atom_site_occupancy
_atom_site_attached_hydrogens
Fe1 Fe3+ 4 a 0 -.322(1) 0.25 0.2 1. 0
O1 O2- 4 a 0 0.294(1) 0.264(11) 0.2 1. 0
O2 O2- 4 a 0 0.074(1) 0.282(9) 0.2 1. 0
H1 H1+ 4 a 0 0.523(2) 0.458(11) 0.2 1. 0
#End of TTdata_1544-ICSD