#------------------------------------------------------------------------------
#$Date: 2015-09-18 08:11:53 +0300 (Fri, 18 Sep 2015) $
#$Revision: 157759 $
#$URL: svn://www.crystallography.net/cod/cif/1/53/21/1532119.cif $
#------------------------------------------------------------------------------
#
# This file is available in the Crystallography Open Database (COD),
# http://www.crystallography.net/
#
# All data on this site have been placed in the public domain by the
# contributors.
#
#
# !!!!!!!!!!!!!!!!!!!!!!!!!!!!!!!!!!!!!!!!!!!!!!!!!!!!!!!!!!!!!!!!!!!!!!!!!!!!!!
# This is the structural data from Fe2O3 with a and c taken from J. Chenavas and J.C. Joubert
# !!!!!!!!!!!!!!!!!!!!!!!!!!!!!!!!!!!!!!!!!!!!!!!!!!!!!!!!!!!!!!!!!!!!!!!!!!!!!!
#
#

data_1532119
loop_
_publ_author_name
'Rozenberg, G.Kh.'
'Dubrovinskii, L.S.'
'Le Bihan, T.'
'Pasternak, M.P.'
'Naaman, O.'
'Ahuja, R.'
_publ_section_title
;
 High-pressure structural studies of hematite Fe2 O3
;
_journal_name_full
'Physical Review, Serie 3. B - Condensed Matter (18,1978-)'
_journal_page_first              064112-1
_journal_page_last               064112-8
_journal_volume                  65
_journal_year                    2002
_chemical_formula_sum            'Fe2 O3'
_chemical_name_systematic        'Fe2 O3'
_space_group_IT_number           167
_symmetry_space_group_name_Hall  '-R 3 2"c'
_symmetry_space_group_name_H-M   'R -3 c :H'
_cell_angle_alpha                90
_cell_angle_beta                 90
_cell_angle_gamma                120
_cell_formula_units_Z            6
_cell_length_a                   4.882
_cell_length_b                   4.882
_cell_length_c                   13.38
_cell_volume                     276.2
_citation_journal_id_ASTM        PRBMDO
_cod_data_source_file            Rozenberg_PRBMDO_2002_1227.cif
_cod_data_source_block           Fe2O3
_cod_original_cell_volume        290.7418
_cod_database_code               1532119
loop_
_symmetry_equiv_pos_as_xyz
x,y,z
-y,x-y,z
-x+y,-x,z
y,x,-z+1/2
-x,-x+y,-z+1/2
x-y,-y,-z+1/2
-x,-y,-z
y,-x+y,-z
x-y,x,-z
-y,-x,z-1/2
x,x-y,z-1/2
-x+y,y,z-1/2
x+2/3,y+1/3,z+1/3
-y+2/3,x-y+1/3,z+1/3
-x+y+2/3,-x+1/3,z+1/3
y+2/3,x+1/3,-z+5/6
-x+2/3,-x+y+1/3,-z+5/6
x-y+2/3,-y+1/3,-z+5/6
-x+2/3,-y+1/3,-z+1/3
y+2/3,-x+y+1/3,-z+1/3
x-y+2/3,x+1/3,-z+1/3
-y+2/3,-x+1/3,z-1/6
x+2/3,x-y+1/3,z-1/6
-x+y+2/3,y+1/3,z-1/6
x+1/3,y+2/3,z+2/3
-y+1/3,x-y+2/3,z+2/3
-x+y+1/3,-x+2/3,z+2/3
y+1/3,x+2/3,-z+7/6
-x+1/3,-x+y+2/3,-z+7/6
x-y+1/3,-y+2/3,-z+7/6
-x+1/3,-y+2/3,-z+2/3
y+1/3,-x+y+2/3,-z+2/3
x-y+1/3,x+2/3,-z+2/3
-y+1/3,-x+2/3,z+1/6
x+1/3,x-y+2/3,z+1/6
-x+y+1/3,y+2/3,z+1/6
loop_
_atom_site_label
_atom_site_type_symbol
_atom_site_fract_x
_atom_site_fract_y
_atom_site_fract_z
_atom_site_occupancy
_atom_site_U_iso_or_equiv
Co Co+3 0 0 0.3511 1 0.0
O O-2 0 0.3225 0.25 1 0.0
