
#(C) 2017 by FIZ Karlsruhe - Leibniz Institute for Information Infrastructure.  All rights reserved.
data_169978-ICSD
_database_code_ICSD 169978
_audit_creation_date 2011-08-01
_chemical_name_systematic 'Nickel dihydroxide - beta'
_chemical_formula_structural 'Ni (O H)2'
_chemical_formula_sum 'H2 Ni1 O2'
_chemical_name_structure_type Brucite-Mg(OH)2
_exptl_crystal_density_diffrn 3.95
_cell_measurement_temperature 293.
_publ_section_title
'Atomic structure and lattice dynamics of Ni and Mg hydroxides'
loop_
_citation_id
_citation_journal_full
_citation_year
_citation_journal_volume
_citation_page_first
_citation_page_last
_citation_journal_id_ASTM
primary 'Solid State Ionics' 2010 181 1764 1770 SSIOD3
loop_
_publ_author_name
'Kazimirov, V.Yu.'
'Smirnov, M.B.'
'Bourgeois, L.'
'Guerlou Demourgues, L.'
'Servant, L.'
'Balagurov, A.M.'
'Natkaniec, I.'
'Khasanova, N.R.'
'Antipov, E.V.'
_cell_length_a 3.1268(1)
_cell_length_b 3.1268(1)
_cell_length_c 4.6060(1)
_cell_angle_alpha 90.
_cell_angle_beta 90.
_cell_angle_gamma 120.
_cell_volume 39.
_cell_formula_units_Z 1
_symmetry_space_group_name_H-M 'P -3 m 1'
_symmetry_Int_Tables_number 164
_refine_ls_R_factor_all 0.08
loop_
_symmetry_equiv_pos_site_id
_symmetry_equiv_pos_as_xyz
1 'x-y, -y, -z'
2 '-x, -x+y, -z'
3 'y, x, -z'
4 'x-y, x, -z'
5 'y, -x+y, -z'
6 '-x, -y, -z'
7 '-x+y, y, z'
8 'x, x-y, z'
9 '-y, -x, z'
10 '-x+y, -x, z'
11 '-y, x-y, z'
12 'x, y, z'
loop_
_atom_type_symbol
_atom_type_oxidation_number
Ni2+ 2
O2- -2
H1+ 1
loop_
_atom_site_label
_atom_site_type_symbol
_atom_site_symmetry_multiplicity
_atom_site_Wyckoff_symbol
_atom_site_fract_x
_atom_site_fract_y
_atom_site_fract_z
_atom_site_B_iso_or_equiv
_atom_site_occupancy
_atom_site_attached_hydrogens
Ni1 Ni2+ 1 a 0 0 0 0.6 1. 0
O1 O2- 2 d 0.3333 0.6667 0.2153(4) 1. 1. 0
H1 H1+ 2 d 0.3333 0.6667 0.4537(10) 5.2(1) 1. 0
#End of TTdata_169978-ICSD