#------------------------------------------------------------------------------
#$Date: 2016-11-14 00:28:54 +0200 (Mon, 14 Nov 2016) $
#$Revision: 188416 $
#$URL: file:///home/coder/svn-repositories/cod/cif/9/01/13/9011314.cif $
#------------------------------------------------------------------------------
#
# This file is available in the Crystallography Open Database (COD),
# http://www.crystallography.net/. The original data for this entry
# were provided the American Mineralogist Crystal Structure Database,
# http://rruff.geo.arizona.edu/AMS/amcsd.php
#
# The file may be used within the scientific community so long as
# proper attribution is given to the journal article from which the
# data were obtained.
#
data_9011314
loop_
_publ_author_name
'Ramesh, T. N.'
'Kamath, P. V.'
'Shivakumara, C.'
_publ_section_title
;
 Classification of stacking faults and their stepwise elemination during the
 disorder -> order transformation of nickel hydroxide
 Locality: synthetic
;
_journal_issue                   4
_journal_name_full               'Acta Crystallographica, Section B'
_journal_page_first              530
_journal_page_last               536
_journal_paper_doi               10.1107/S0108768106013188
_journal_volume                  62
_journal_year                    2006
_chemical_formula_sum            'H2 Ni O2'
_chemical_name_mineral           Theophrastite
_space_group_IT_number           164
_symmetry_space_group_name_Hall  '-P 3 2"'
_symmetry_space_group_name_H-M   'P -3 m 1'
_cell_angle_alpha                90
_cell_angle_beta                 90
_cell_angle_gamma                120
_cell_length_a                   3.12
_cell_length_b                   3.12
_cell_length_c                   4.61
_cell_volume                     38.863
_exptl_crystal_density_diffrn    3.961
_cod_original_formula_sum        'Ni (O2 H2)'
_cod_database_code               9011314
loop_
_symmetry_equiv_pos_as_xyz
x,y,z
-y,-x,z
y,-x+y,-z
-x,-x+y,-z
-x+y,-x,z
-x+y,y,z
-x,-y,-z
y,x,-z
-y,x-y,z
x,x-y,z
x-y,x,-z
x-y,-y,-z
loop_
_atom_site_label
_atom_site_fract_x
_atom_site_fract_y
_atom_site_fract_z
Ni 0.00000 0.00000 0.00000
O 0.33333 0.66667 0.22570
