
#(C) 2017 by FIZ Karlsruhe - Leibniz Institute for Information Infrastructure.  All rights reserved.
data_31136-ICSD
_database_code_ICSD 31136
_audit_creation_date 1980-01-01
_audit_update_record 2012-08-01
_chemical_name_systematic 'Iron(III) oxide hydroxide - HT'
_chemical_formula_structural 'Fe O (O H)'
_chemical_formula_sum 'H1 Fe1 O2'
_exptl_crystal_density_diffrn 3.56
_publ_section_title 'Beta ferric oxyhydroxide.'
loop_
_citation_id
_citation_journal_full
_citation_year
_citation_journal_volume
_citation_page_first
_citation_page_last
_citation_journal_id_ASTM
primary
'Mineralogical Magazine and Journal of the Mineralogical Society (1876-1968)' 1960 32 545 557 MIASA6
loop_
_publ_author_name
'MacKay, A.L.'
_cell_length_a 10.48(1)
_cell_length_b 10.48(1)
_cell_length_c 3.023(5)
_cell_angle_alpha 90.
_cell_angle_beta 90.
_cell_angle_gamma 90.
_cell_volume 332.02
_cell_formula_units_Z 8
_symmetry_space_group_name_H-M 'I 4/m'
_symmetry_Int_Tables_number 87
loop_
_symmetry_equiv_pos_site_id
_symmetry_equiv_pos_as_xyz
1 '-y, x, -z'
2 'y, -x, -z'
3 'x, y, -z'
4 '-x, -y, -z'
5 'y, -x, z'
6 '-y, x, z'
7 '-x, -y, z'
8 'x, y, z'
9 '-y+1/2, x+1/2, -z+1/2'
10 'y+1/2, -x+1/2, -z+1/2'
11 'x+1/2, y+1/2, -z+1/2'
12 '-x+1/2, -y+1/2, -z+1/2'
13 'y+1/2, -x+1/2, z+1/2'
14 '-y+1/2, x+1/2, z+1/2'
15 '-x+1/2, -y+1/2, z+1/2'
16 'x+1/2, y+1/2, z+1/2'
loop_
_atom_type_symbol
_atom_type_oxidation_number
Fe3+ 3
O2- -2
H1+ 1
loop_
_atom_site_label
_atom_site_type_symbol
_atom_site_symmetry_multiplicity
_atom_site_Wyckoff_symbol
_atom_site_fract_x
_atom_site_fract_y
_atom_site_fract_z
_atom_site_B_iso_or_equiv
_atom_site_occupancy
_atom_site_attached_hydrogens
Fe1 Fe3+ 8 h 0.348 0.167 0 . 1. 0
O1 O2- 8 h 0.153 0.18 0 . 1. 0
O2 O2- 8 h 0.542 0.167 0 . 1. 0
#End of TTdata_31136-ICSD